  48
   1   1
    54.092140491319995    -0.000002282090000     4.350219048750000
    -0.000002282090000    55.879921990169997    -0.000006966380000
     4.350219048750000    -0.000006966380000    44.079355190609995
   1   2
    -0.004042302050000     0.000000000000000    -0.000007807150000
     0.000000000000000    -0.001672411640000     0.000000000000000
    -0.000007807150000     0.000000000000000    -0.011756967350000
   1   3
    -0.005773687700000     0.000000000000000    -0.001255629940000
     0.000000000000000    -0.000423387750000     0.000000000000000
     0.001255629940000     0.000000000000000    -0.001895816240000
   1   4
     0.006703339100000    -0.000000000000000     0.008195946070000
     0.000000000000000     0.006578424700000     0.000000000000000
    -0.008195946070000     0.000000000000000    -0.025833018580000
   1   5
    -9.772883065623098     0.000000129678838     3.159547736004148
     0.000000129678838    -8.583854425700919     0.000001685824898
     3.160393112350954     0.000001685824898   -17.226390470910211
   1   6
     0.007927656421125    -0.000000000000000     0.005706128242395
     0.000000000000000     0.002146314452522     0.000000000000000
    -0.005692771322051     0.000000000000000    -0.007179020487682
   1   7
     0.000964551199194     0.000000000000000    -0.002721569779172
     0.000000000000000    -0.000008558803327    -0.000000000000000
    -0.001976435174364    -0.000000000000000     0.012317674133725
   1   8
    -0.001333098457612    -0.000000000000000     0.004003056059145
     0.000000000000000     0.003282560433611     0.000000000000000
    -0.011331985283889     0.000000000000000    -0.012049238938466
   1   9
     0.531229122161772     0.362356080096465    -0.807487853759923
     1.172144596818709     0.376606611893499    -2.522267189780101
     0.512634661159501    -0.294947875222937    -2.026350630960497
   1  10
    -0.008783719367237    -0.003044295843477    -0.004364272799460
    -0.002731586728192    -0.002533245348743    -0.000907490655405
     0.007975624671339     0.013805017480623     0.002928957714732
   1  11
     0.001793216784112     0.001550653213473    -0.000433696317042
    -0.000315204411339     0.000323556721744     0.001079250200495
     0.000397375896692     0.010842893122499     0.001189667050910
   1  12
    -0.000485716308402    -0.010397621404316    -0.006637140936285
    -0.001284869526771    -0.005891255357304     0.003138562583316
     0.005830709771090     0.003460074548571    -0.005508643295601
   1  13
    -0.008783719367237     0.003044295843477    -0.004364272799460
     0.002731586728192    -0.002533245348743     0.000907490655405
     0.007975624671339    -0.013805017480623     0.002928957714732
   1  14
     0.531229191475552    -0.362356010782685    -0.807487888416812
    -1.172144700789378     0.376606299981492     2.522267397721439
     0.512634799787060     0.294948048507385    -2.026351046843172
   1  15
    -0.000485716308402     0.010397621404316    -0.006637140936285
     0.001284869526771    -0.005891255357304    -0.003138562583316
     0.005830709771090    -0.003460074548571    -0.005508643295601
   1  16
     0.001793216784112    -0.001550653213473    -0.000433696317042
     0.000315204411339     0.000323556721744    -0.001079250200495
     0.000397375896692    -0.010842893122499     0.001189667050910
   1  17
    -0.925910480340397    -0.000000207941338     3.433535966010019
    -0.000000034656890    -0.015879266982882    -0.000000069313779
     0.700791663046606    -0.000000000000000    -0.147005237835883
   1  18
     0.001002277248589    -0.000000000000000     0.000360015769652
    -0.000000000000000     0.001421348358200    -0.000000000000000
     0.001701098771430    -0.000000000000000     0.002563708754743
   1  19
    -0.000623962641203    -0.000000000000000     0.003213248180505
    -0.000000000000000     0.001097722322677     0.000000000000000
     0.000488419545794     0.000000000000000    -0.004813738001291
   1  20
     0.021882117524849    -0.000000000000000    -0.002453187933658
    -0.000000000000000    -0.005965351787369     0.000000000000000
     0.007244988123803     0.000000000000000    -0.010169960296225
   1  21
    -7.315889777809454     7.135394651771715    -3.577459339934049
     7.531340223970881   -21.760278941940250     8.811948894100688
    -4.247622768813835     9.866799881832950    -9.177816063687283
   1  22
     0.000924264589994     0.001627383567151     0.000797455030776
    -0.001546182474708     0.001543201982199    -0.001832067157406
     0.000877824357867     0.000175918371848     0.004859173183618
   1  23
     0.001841355203831     0.001808535129336    -0.001527571724968
     0.000101891255562     0.001383260436478     0.001019189810737
    -0.001093979378595    -0.003948112868579     0.001583230689741
   1  24
    -0.004847979008262    -0.007070317399982     0.005676001415706
     0.001771521571193    -0.001888038034186    -0.000142821042235
     0.000329656334322    -0.004644023212690     0.008307776301716
   1  25
     0.000924264589994    -0.001627383567151     0.000797455030776
     0.001546182474708     0.001543201982199     0.001832067157406
     0.000877824357867    -0.000175918371848     0.004859173183618
   1  26
    -7.315889257956110    -7.135393126868570    -3.577457988315352
    -7.531338629753958   -21.760276030761517    -8.811944458018813
    -4.247621313224471    -9.866795411094186    -9.177813360449889
   1  27
    -0.004847979008262     0.007070317399982     0.005676001415706
    -0.001771521571193    -0.001888038034186     0.000142821042235
     0.000329656334322     0.004644023212690     0.008307776301716
   1  28
     0.001841355203831    -0.001808535129336    -0.001527571724968
    -0.000101891255562     0.001383260436478    -0.001019189810737
    -0.001093979378595     0.003948112868579     0.001583230689741
   1  29
   -29.587788072670108     0.000000727794683    -2.038878576714520
     0.000000658480903    -4.216707402316292     0.000000623824014
    -0.751712961691072     0.000000589167124    -4.333904977161526
   1  30
     0.000455287559292     0.000000000000000    -0.002137082443189
    -0.000000000000000    -0.000183750828908    -0.000000000000000
     0.000539919683810    -0.000000000000000     0.004547885000809
   1  31
     0.001339904667530    -0.000000000000000     0.000182953720446
    -0.000000000000000     0.001140107698715    -0.000000000000000
    -0.000159733604383    -0.000000000000000     0.000561095043384
   1  32
    -0.001694132736611     0.000000000000000    -0.002193157290637
     0.000000000000000     0.002827863567632     0.000000000000000
    -0.005183284415596     0.000000000000000    -0.003370763743951
   1  33
    -0.014701100881104    -0.046426025698129     0.013732301874992
     0.006693792514936    -0.009292388819177    -0.077854124867041
    -0.002429979381447    -0.008040233564110    -0.098584029037979
   1  34
    -0.001712110292984     0.061307716301278    -0.035165109135329
    -0.047967523601777     0.012008218782756     0.028586055946554
    -0.011803683462208     0.009641595464016     0.088545335732117
   1  35
    -0.014701100881104     0.046426025698129     0.013732301874992
    -0.006693792514936    -0.009292388819177     0.077854124867041
    -0.002429979381447     0.008040233564110    -0.098584029037979
   1  36
    -0.001712110292984    -0.061307716301278    -0.035165109135329
     0.047967523601777     0.012008218782756    -0.028586055946554
    -0.011803683462208    -0.009641595464016     0.088545335732117
   1  37
    -0.013802588623561     0.000000000000000    -0.019616813682748
    -0.000000000000000    -0.016779404938231     0.000000000000000
     0.013987845794565     0.000000000000000    -0.042453322646832
   1  38
     0.004609433858463     0.000000000000000    -0.006163673368370
     0.000000000000000    -0.007304646881424    -0.000000000000000
    -0.004067912897068    -0.000000000000000     0.012161916420159
   1  39
    -0.004163639428573     0.000000000000000     0.002331823956761
     0.000000000000000    -0.012138681825134     0.000000000000000
     0.001412353582951     0.000000000000000    -0.008588125910634
   1  40
    -0.019140659382025    -0.000000000000000     0.018722746466166
     0.000000000000000     0.016167250807959     0.000000000000000
    -0.241417045947781     0.000000000000000    -0.072929366455308
   1  41
    -0.011676778076026     0.001503433195451    -0.002433126791073
     0.000545858085800    -0.007509730906849    -0.006966660972452
    -0.007778632619944     0.004900640782783     0.008906284965183
   1  42
     0.014422177824242    -0.007154396500259     0.003471248496813
    -0.017848506104005    -0.020844529683896     0.002222156668241
    -0.012664713056511    -0.037460053278548     0.023258139415148
   1  43
    -0.074789683030352     0.064995526740594    -0.006433504465267
     0.005369979602299    -0.023605419162129     0.007911224708890
     0.130959471401851    -0.156438838101438     0.042539755340327
   1  44
    -0.014618277806257    -0.093862807189502    -0.035361194861242
    -0.066003598370101    -0.086491554469006    -0.045531441795813
     0.014406068505024     0.001990120512586     0.021029786854900
   1  45
     0.014422177824242     0.007154396500259     0.003471248496813
     0.017848506104005    -0.020844529683896    -0.002222156668241
    -0.012664713056511     0.037460053278548     0.023258139415148
   1  46
    -0.011676778076026    -0.001503433195451    -0.002433126791073
    -0.000545858085800    -0.007509730906849     0.006966660972452
    -0.007778632619944    -0.004900640782783     0.008906284965183
   1  47
    -0.014618277806257     0.093862807189502    -0.035361194861242
     0.066003598370101    -0.086491554469006     0.045531441795813
     0.014406068505024    -0.001990120512586     0.021029786854900
   1  48
    -0.074789683030352    -0.064995526740594    -0.006433504465267
    -0.005369979602299    -0.023605419162129    -0.007911224708890
     0.130959471401851     0.156438838101438     0.042539755340327
   2   1
    -0.004042302050000     0.000000000000000    -0.000007807150000
     0.000000000000000    -0.001672411640000     0.000000000000000
    -0.000007807150000     0.000000000000000    -0.011756967350000
   2   2
    54.092140491319995    -0.000002282090000     4.350219048750000
    -0.000002282090000    55.879921990169997    -0.000006966380000
     4.350219048750000    -0.000006966380000    44.079355190609995
   2   3
     0.006703339100000    -0.000000000000000     0.008195946070000
     0.000000000000000     0.006578424700000     0.000000000000000
    -0.008195946070000     0.000000000000000    -0.025833018580000
   2   4
    -0.005773687700000     0.000000000000000    -0.001255629940000
     0.000000000000000    -0.000423387750000     0.000000000000000
     0.001255629940000     0.000000000000000    -0.001895816240000
   2   5
     0.007927656421125    -0.000000000000000     0.005706128242395
     0.000000000000000     0.002146314452522     0.000000000000000
    -0.005692771322051     0.000000000000000    -0.007179020487682
   2   6
    -9.772883065623098     0.000000129678838     3.159547736004148
     0.000000129678838    -8.583854425700919     0.000001685824898
     3.160393112350954     0.000001685824898   -17.226390470910211
   2   7
    -0.001333098457612    -0.000000000000000     0.004003056059145
     0.000000000000000     0.003282560433611     0.000000000000000
    -0.011331985283889     0.000000000000000    -0.012049238938466
   2   8
     0.000964551199194     0.000000000000000    -0.002721569779172
     0.000000000000000    -0.000008558803327    -0.000000000000000
    -0.001976435174364    -0.000000000000000     0.012317674133725
   2   9
    -0.008783719367237    -0.003044295843477    -0.004364272799460
    -0.002731586728192    -0.002533245348743    -0.000907490655405
     0.007975624671339     0.013805017480623     0.002928957714732
   2  10
     0.531229122161772     0.362356080096465    -0.807487853759923
     1.172144596818709     0.376606611893499    -2.522267189780101
     0.512634661159501    -0.294947875222937    -2.026350630960497
   2  11
    -0.000485716308402    -0.010397621404316    -0.006637140936285
    -0.001284869526771    -0.005891255357304     0.003138562583316
     0.005830709771090     0.003460074548571    -0.005508643295601
   2  12
     0.001793216784112     0.001550653213473    -0.000433696317042
    -0.000315204411339     0.000323556721744     0.001079250200495
     0.000397375896692     0.010842893122499     0.001189667050910
   2  13
     0.531229191475552    -0.362356010782685    -0.807487888416812
    -1.172144700789378     0.376606299981492     2.522267397721439
     0.512634799787060     0.294948048507385    -2.026351046843172
   2  14
    -0.008783719367237     0.003044295843477    -0.004364272799460
     0.002731586728192    -0.002533245348743     0.000907490655405
     0.007975624671339    -0.013805017480623     0.002928957714732
   2  15
     0.001793216784112    -0.001550653213473    -0.000433696317042
     0.000315204411339     0.000323556721744    -0.001079250200495
     0.000397375896692    -0.010842893122499     0.001189667050910
   2  16
    -0.000485716308402     0.010397621404316    -0.006637140936285
     0.001284869526771    -0.005891255357304    -0.003138562583316
     0.005830709771090    -0.003460074548571    -0.005508643295601
   2  17
     0.001002277248589    -0.000000000000000     0.000360015769652
    -0.000000000000000     0.001421348358200    -0.000000000000000
     0.001701098771430    -0.000000000000000     0.002563708754743
   2  18
    -0.925910480340397    -0.000000207941338     3.433535966010019
    -0.000000034656890    -0.015879266982882    -0.000000069313779
     0.700791663046606    -0.000000000000000    -0.147005237835883
   2  19
     0.021882117524849    -0.000000000000000    -0.002453187933658
    -0.000000000000000    -0.005965351787369     0.000000000000000
     0.007244988123803     0.000000000000000    -0.010169960296225
   2  20
    -0.000623962641203    -0.000000000000000     0.003213248180505
    -0.000000000000000     0.001097722322677     0.000000000000000
     0.000488419545794     0.000000000000000    -0.004813738001291
   2  21
     0.000924264589994     0.001627383567151     0.000797455030776
    -0.001546182474708     0.001543201982199    -0.001832067157406
     0.000877824357867     0.000175918371848     0.004859173183618
   2  22
    -7.315889777809454     7.135394651771715    -3.577459339934049
     7.531340223970881   -21.760278941940250     8.811948894100688
    -4.247622768813835     9.866799881832950    -9.177816063687283
   2  23
    -0.004847979008262    -0.007070317399982     0.005676001415706
     0.001771521571193    -0.001888038034186    -0.000142821042235
     0.000329656334322    -0.004644023212690     0.008307776301716
   2  24
     0.001841355203831     0.001808535129336    -0.001527571724968
     0.000101891255562     0.001383260436478     0.001019189810737
    -0.001093979378595    -0.003948112868579     0.001583230689741
   2  25
    -7.315889257956110    -7.135393126868570    -3.577457988315352
    -7.531338629753958   -21.760276030761517    -8.811944458018813
    -4.247621313224471    -9.866795411094186    -9.177813360449889
   2  26
     0.000924264589994    -0.001627383567151     0.000797455030776
     0.001546182474708     0.001543201982199     0.001832067157406
     0.000877824357867    -0.000175918371848     0.004859173183618
   2  27
     0.001841355203831    -0.001808535129336    -0.001527571724968
    -0.000101891255562     0.001383260436478    -0.001019189810737
    -0.001093979378595     0.003948112868579     0.001583230689741
   2  28
    -0.004847979008262     0.007070317399982     0.005676001415706
    -0.001771521571193    -0.001888038034186     0.000142821042235
     0.000329656334322     0.004644023212690     0.008307776301716
   2  29
     0.000455287559292     0.000000000000000    -0.002137082443189
    -0.000000000000000    -0.000183750828908    -0.000000000000000
     0.000539919683810    -0.000000000000000     0.004547885000809
   2  30
   -29.587788072670108     0.000000727794683    -2.038878576714520
     0.000000658480903    -4.216707402316292     0.000000623824014
    -0.751712961691072     0.000000589167124    -4.333904977161526
   2  31
    -0.001694132736611     0.000000000000000    -0.002193157290637
     0.000000000000000     0.002827863567632     0.000000000000000
    -0.005183284415596     0.000000000000000    -0.003370763743951
   2  32
     0.001339904667530    -0.000000000000000     0.000182953720446
    -0.000000000000000     0.001140107698715    -0.000000000000000
    -0.000159733604383    -0.000000000000000     0.000561095043384
   2  33
    -0.014701100881104    -0.046426025698129     0.013732301874992
     0.006693792514936    -0.009292388819177    -0.077854124867041
    -0.002429979381447    -0.008040233564110    -0.098584029037979
   2  34
    -0.001712110292984     0.061307716301278    -0.035165109135329
    -0.047967523601777     0.012008218782756     0.028586055946554
    -0.011803683462208     0.009641595464016     0.088545335732117
   2  35
    -0.014701100881104     0.046426025698129     0.013732301874992
    -0.006693792514936    -0.009292388819177     0.077854124867041
    -0.002429979381447     0.008040233564110    -0.098584029037979
   2  36
    -0.001712110292984    -0.061307716301278    -0.035165109135329
     0.047967523601777     0.012008218782756    -0.028586055946554
    -0.011803683462208    -0.009641595464016     0.088545335732117
   2  37
     0.004609433858463     0.000000000000000    -0.006163673368370
     0.000000000000000    -0.007304646881424    -0.000000000000000
    -0.004067912897068    -0.000000000000000     0.012161916420159
   2  38
    -0.013802588623561     0.000000000000000    -0.019616813682748
    -0.000000000000000    -0.016779404938231     0.000000000000000
     0.013987845794565     0.000000000000000    -0.042453322646832
   2  39
    -0.019140659382025    -0.000000000000000     0.018722746466166
     0.000000000000000     0.016167250807959     0.000000000000000
    -0.241417045947781     0.000000000000000    -0.072929366455308
   2  40
    -0.004163639428573     0.000000000000000     0.002331823956761
     0.000000000000000    -0.012138681825134     0.000000000000000
     0.001412353582951     0.000000000000000    -0.008588125910634
   2  41
     0.014422177824242    -0.007154396500259     0.003471248496813
    -0.017848506104005    -0.020844529683896     0.002222156668241
    -0.012664713056511    -0.037460053278548     0.023258139415148
   2  42
    -0.011676778076026     0.001503433195451    -0.002433126791073
     0.000545858085800    -0.007509730906849    -0.006966660972452
    -0.007778632619944     0.004900640782783     0.008906284965183
   2  43
    -0.014618277806257    -0.093862807189502    -0.035361194861242
    -0.066003598370101    -0.086491554469006    -0.045531441795813
     0.014406068505024     0.001990120512586     0.021029786854900
   2  44
    -0.074789683030352     0.064995526740594    -0.006433504465267
     0.005369979602299    -0.023605419162129     0.007911224708890
     0.130959471401851    -0.156438838101438     0.042539755340327
   2  45
    -0.011676778076026    -0.001503433195451    -0.002433126791073
    -0.000545858085800    -0.007509730906849     0.006966660972452
    -0.007778632619944    -0.004900640782783     0.008906284965183
   2  46
     0.014422177824242     0.007154396500259     0.003471248496813
     0.017848506104005    -0.020844529683896    -0.002222156668241
    -0.012664713056511     0.037460053278548     0.023258139415148
   2  47
    -0.074789683030352    -0.064995526740594    -0.006433504465267
    -0.005369979602299    -0.023605419162129    -0.007911224708890
     0.130959471401851     0.156438838101438     0.042539755340327
   2  48
    -0.014618277806257     0.093862807189502    -0.035361194861242
     0.066003598370101    -0.086491554469006     0.045531441795813
     0.014406068505024    -0.001990120512586     0.021029786854900
   3   1
    -0.005773687700000     0.000000000000000     0.001255629940000
     0.000000000000000    -0.000423387750000     0.000000000000000
    -0.001255629940000     0.000000000000000    -0.001895816240000
   3   2
     0.006703339100000     0.000000000000000    -0.008195946070000
    -0.000000000000000     0.006578424700000     0.000000000000000
     0.008195946070000     0.000000000000000    -0.025833018580000
   3   3
    54.092140611429997    -0.000001681540000    -4.350220369960000
    -0.000001681540000    55.879921990169997    -0.000006726160000
    -4.350220369960000    -0.000006726160000    44.079355310719997
   3   4
    -0.004042302050000     0.000000000000000     0.000007807150000
     0.000000000000000    -0.001672411640000     0.000000000000000
     0.000007807150000     0.000000000000000    -0.011756967350000
   3   5
     0.000964551199194    -0.000000000000000     0.002721569779172
    -0.000000000000000    -0.000008558803327    -0.000000000000000
     0.001976435174364    -0.000000000000000     0.012317674133725
   3   6
    -0.001333098457612     0.000000000000000    -0.004003056059145
    -0.000000000000000     0.003282560433611     0.000000000000000
     0.011331985283889     0.000000000000000    -0.012049238938466
   3   7
    -9.772883065623098     0.000000518715353    -3.159547346967633
     0.000000518715353    -8.583854425700919     0.000001815503736
    -3.160392723314440     0.000001815503736   -17.226390341231372
   3   8
     0.007927656421125     0.000000000000000    -0.005706128242395
    -0.000000000000000     0.002146314452522     0.000000000000000
     0.005692771322051     0.000000000000000    -0.007179020487682
   3   9
     0.001793216784112     0.001550653213473     0.000433696317042
    -0.000315204411339     0.000323556721744    -0.001079250200495
    -0.000397375896692    -0.010842893122499     0.001189667050910
   3  10
    -0.000485716308402    -0.010397621404316     0.006637140936285
    -0.001284869526771    -0.005891255357304    -0.003138562583316
    -0.005830709771090    -0.003460074548571    -0.005508643295601
   3  11
     0.531229122161772     0.362355976125796     0.807487819103033
     1.172144631475599     0.376606230667713     2.522267363064549
    -0.512634799787060     0.294948048507385    -2.026351046843172
   3  12
    -0.008783719367237    -0.003044295843477     0.004364272799460
    -0.002731586728192    -0.002533245348743     0.000907490655405
    -0.007975624671339    -0.013805017480623     0.002928957714732
   3  13
    -0.000485716308402     0.010397621404316     0.006637140936285
     0.001284869526771    -0.005891255357304     0.003138562583316
    -0.005830709771090     0.003460074548571    -0.005508643295601
   3  14
     0.001793216784112    -0.001550653213473     0.000433696317042
     0.000315204411339     0.000323556721744     0.001079250200495
    -0.000397375896692     0.010842893122499     0.001189667050910
   3  15
    -0.008783719367237     0.003044295843477     0.004364272799460
     0.002731586728192    -0.002533245348743    -0.000907490655405
    -0.007975624671339     0.013805017480623     0.002928957714732
   3  16
     0.531229191475552    -0.362356080096465     0.807487957730591
    -1.172144596818709     0.376606646550389    -2.522267189780101
    -0.512634626502611    -0.294947840566047    -2.026350630960497
   3  17
    -0.000623962641203     0.000000000000000    -0.003213248180505
     0.000000000000000     0.001097722322677     0.000000000000000
    -0.000488419545794     0.000000000000000    -0.004813738001291
   3  18
     0.021882117524849    -0.000000000000000     0.002453187933658
     0.000000000000000    -0.005965351787369     0.000000000000000
    -0.007244988123803     0.000000000000000    -0.010169960296225
   3  19
    -0.925910411026618     0.000000242598228    -3.433535931353129
     0.000000069313779    -0.015879266982882     0.000000069313779
    -0.700791663046606     0.000000034656890    -0.147005168522104
   3  20
     0.001002277248589    -0.000000000000000    -0.000360015769652
     0.000000000000000     0.001421348358200    -0.000000000000000
    -0.001701098771430    -0.000000000000000     0.002563708754743
   3  21
     0.001841355203831     0.001808535129336     0.001527571724968
     0.000101891255562     0.001383260436478    -0.001019189810737
     0.001093979378595     0.003948112868579     0.001583230689741
   3  22
    -0.004847979008262    -0.007070317399982    -0.005676001415706
     0.001771521571193    -0.001888038034186     0.000142821042235
    -0.000329656334322     0.004644023212690     0.008307776301716
   3  23
    -7.315889881780124     7.135394339859708     3.577458542825586
     7.531339808088205   -21.760276585271754    -8.811944700617040
     4.247621902391594    -9.866795688349303    -9.177813464420559
   3  24
     0.000924264589994     0.001627383567151    -0.000797455030776
    -0.001546182474708     0.001543201982199     0.001832067157406
    -0.000877824357867    -0.000175918371848     0.004859173183618
   3  25
    -0.004847979008262     0.007070317399982    -0.005676001415706
    -0.001771521571193    -0.001888038034186    -0.000142821042235
    -0.000329656334322    -0.004644023212690     0.008307776301716
   3  26
     0.001841355203831    -0.001808535129336     0.001527571724968
    -0.000101891255562     0.001383260436478     0.001019189810737
     0.001093979378595    -0.003948112868579     0.001583230689741
   3  27
     0.000924264589994    -0.001627383567151    -0.000797455030776
     0.001546182474708     0.001543201982199    -0.001832067157406
    -0.000877824357867     0.000175918371848     0.004859173183618
   3  28
    -7.315889361926780    -7.135393716035695     3.577459235963380
    -7.531339288234861   -21.760278422086905     8.811948894100688
     4.247622630186277     9.866799847176059    -9.177816167657951
   3  29
     0.001339904667530    -0.000000000000000    -0.000182953720446
    -0.000000000000000     0.001140107698715    -0.000000000000000
     0.000159733604383    -0.000000000000000     0.000561095043384
   3  30
    -0.001694132736611    -0.000000000000000     0.002193157290637
    -0.000000000000000     0.002827863567632    -0.000000000000000
     0.005183284415596    -0.000000000000000    -0.003370763743951
   3  31
   -29.587788107327000     0.000000485196455     2.038879096567864
     0.000000554510234    -4.216707402316292     0.000000554510234
     0.751713481544417     0.000000554510234    -4.333905046475306
   3  32
     0.000455287559292    -0.000000000000000     0.002137082443189
     0.000000000000000    -0.000183750828908    -0.000000000000000
    -0.000539919683810    -0.000000000000000     0.004547885000809
   3  33
    -0.001712110292984     0.061307716301278     0.035165109135329
    -0.047967523601777     0.012008218782756    -0.028586055946554
     0.011803683462208    -0.009641595464016     0.088545335732117
   3  34
    -0.014701100881104    -0.046426025698129    -0.013732301874992
     0.006693792514936    -0.009292388819177     0.077854124867041
     0.002429979381447     0.008040233564110    -0.098584029037979
   3  35
    -0.001712110292984    -0.061307716301278     0.035165109135329
     0.047967523601777     0.012008218782756     0.028586055946554
     0.011803683462208     0.009641595464016     0.088545335732117
   3  36
    -0.014701100881104     0.046426025698129    -0.013732301874992
    -0.006693792514936    -0.009292388819177    -0.077854124867041
     0.002429979381447    -0.008040233564110    -0.098584029037979
   3  37
    -0.004163639428573     0.000000000000000    -0.002331823956761
     0.000000000000000    -0.012138681825134     0.000000000000000
    -0.001412353582951     0.000000000000000    -0.008588125910634
   3  38
    -0.019140659382025     0.000000000000000    -0.018722746466166
    -0.000000000000000     0.016167250807959     0.000000000000000
     0.241417045947781    -0.000000000000000    -0.072929366455308
   3  39
    -0.013802588623561    -0.000000000000000     0.019616813682748
     0.000000000000000    -0.016779404938231     0.000000000000000
    -0.013987845794565     0.000000000000000    -0.042453322646832
   3  40
     0.004609433858463    -0.000000000000000     0.006163673368370
    -0.000000000000000    -0.007304646881424    -0.000000000000000
     0.004067912897068    -0.000000000000000     0.012161916420159
   3  41
    -0.074789683030352     0.064995526740594     0.006433504465267
     0.005369979602299    -0.023605419162129    -0.007911224708890
    -0.130959471401851     0.156438838101438     0.042539755340327
   3  42
    -0.014618277806257    -0.093862807189502     0.035361194861242
    -0.066003598370101    -0.086491554469006     0.045531441795813
    -0.014406068505024    -0.001990120512586     0.021029786854900
   3  43
    -0.011676778076026     0.001503433195451     0.002433126791073
     0.000545858085800    -0.007509730906849     0.006966660972452
     0.007778632619944    -0.004900640782783     0.008906284965183
   3  44
     0.014422177824242    -0.007154396500259    -0.003471248496813
    -0.017848506104005    -0.020844529683896    -0.002222156668241
     0.012664713056511     0.037460053278548     0.023258139415148
   3  45
    -0.014618277806257     0.093862807189502     0.035361194861242
     0.066003598370101    -0.086491554469006    -0.045531441795813
    -0.014406068505024     0.001990120512586     0.021029786854900
   3  46
    -0.074789683030352    -0.064995526740594     0.006433504465267
    -0.005369979602299    -0.023605419162129     0.007911224708890
    -0.130959471401851    -0.156438838101438     0.042539755340327
   3  47
     0.014422177824242     0.007154396500259    -0.003471248496813
     0.017848506104005    -0.020844529683896     0.002222156668241