  34
   1   1
    51.563575162519989    -0.103284630870000    -0.044561890990000
    -0.103284630870000    35.970227751469999    -7.316613072960000
    -0.044561890990000    -7.316613072960000    48.387567688619995
   1   2
    -0.045149709330000    -2.443887538580000    -1.025834046680000
    -0.259851619170000    -1.647814553320000    -0.752199444680000
     0.138411521030000     1.263986953580000     0.452255828170000
   1   3
    -0.018968131530000     2.477293492660000     1.036700278270000
     0.242482992510000    -1.647027352380000    -0.758283977060000
    -0.126393794870000     1.192928916700000     0.423203261040000
   1   4
    -0.008522765380000    -0.000245264620000    -0.000321414360000
    -0.000024502440000     0.008199909700000    -0.002322927400000
     0.000176801920000     0.002217350710000    -0.020483559400000
   1   5
    -0.002037425930000     0.003082983480000     0.004461245730000
    -0.008249755350000    -0.004107521780000    -0.003481628570000
    -0.004976157300000     0.002015686020000    -0.014035213830000
   1   6
     0.005849957550000    -0.002483874800000    -0.005069482770000
     0.007647884140000    -0.006016309900000    -0.003205735900000
     0.009279578490000     0.003193965120000    -0.013846280800000
   1   7
     0.121187483922728     0.105675198744318    -0.086608052424152
     0.237745396555750     0.129511306364350    -0.097483730964257
     0.021798213195014     0.164024785801929     0.172164302904409
   1   8
    -0.488292770891961    -0.103591522568075     0.302293680238722
    -0.276883179435809    -0.032086284171155     0.114374285987037
     0.294623590706511     0.088966453764626    -0.209439208652165
   1   9
     0.119942261877714     0.044735286440715    -0.058989873093838
     0.061546650470652     0.103752919703161    -0.060944140444139
    -0.074981220457839    -0.036306488280352     0.004435527364574
   1  10
    -0.507399911262779     0.117503907092824    -0.292838656919024
     0.281940590028207    -0.021290143192789     0.105567242533067
    -0.286473884478475     0.096149059487064    -0.193186964222903
   1  11
     0.125701439828573    -0.046668066519435     0.056022758143605
    -0.074306034933737     0.102703786339769    -0.058925064710199
     0.067188965389621    -0.034689883005881     0.000621675286487
   1  12
     0.123203371222822    -0.100586631608127     0.088089911711675
    -0.241075299826807     0.130239031733157    -0.092005135191980
    -0.021663120639170     0.168537632687305     0.170877769846935
   1  13
   -21.197300157976464    10.153442129481329    -6.020156979665284
    10.250973686953300    -9.489909915209697     3.580097976884207
    -6.044207613432231     3.768312093325451    -5.814036029569254
   1  14
   -20.782653589496253   -10.043868411877517     6.479003073729159
   -10.156280944626090    -9.539758132580024     3.914021302116097
     6.501798123041088     4.092310205215803    -6.201238916158525
   1  15
    -3.815622213382485     0.063107423495901    -0.404811774963763
     0.062690258515221    -3.890629010624883     3.888404592819784
    -0.409798312216833     3.853543504779047   -29.202573001300319
   1  16
     0.002060664001517    -0.000511119808513     0.001892716714288
    -0.001514228822454    -0.002734220651805     0.002842350147504
     0.000580572215365     0.001398648095481    -0.006059098673864
   1  17
     0.001035201293754    -0.001671120561886    -0.001570372983682
    -0.001646236915119     0.004019506061252    -0.001025185452646
     0.003689191246027     0.006371530534031    -0.001294712083430
   1  18
    -0.003148093227969     0.001050970178543    -0.002062847385565
    -0.001630364059661    -0.003637760421791    -0.000916120220927
     0.000968244182956     0.004037492986979     0.001998073658815
   1  19
     0.001229002620660     0.001515441813592     0.001793182127222
     0.000490117733387     0.004248553444928    -0.000993127829723
    -0.004928833531808     0.006497300386560    -0.001682245423462
   1  20
    -0.003495389919121    -0.001459540250591     0.002374898019946
     0.001577061763384    -0.003707247485533    -0.000827779809217
    -0.000888810591885     0.004420416960688     0.002509886605121
   1  21
     0.002022541422906     0.000054342002966    -0.002528150785965
     0.001600108594999    -0.002665392068967     0.002996746590881
    -0.000984532921090     0.001109609635826    -0.006076981628922
   1  22
    -0.001177779737762     0.000638414564186     0.000827052014535
     0.005954122955123     0.001249900725117     0.000218026492769
    -0.008552349971954    -0.009819128602329    -0.013592432119529
   1  23
    -0.000443538873702    -0.001405440845852    -0.000958574910745
    -0.005919535379256     0.001157505457318    -0.000272645750852
     0.008957142443030    -0.009651701168445    -0.012714885016779
   1  24
     0.010324564680940     0.000220313847486    -0.000071011966887
     0.000164966794719    -0.005273773554464     0.003362446090436
    -0.000357381846039     0.003036983239761    -0.005079833600000
   1  25
    -4.845610997969257    -0.094360249872730    -0.037095764997365
    -0.036106267229292   -10.096184260702289    -2.329515798561490
    -0.031196654840580    -6.967041224935898    -7.425300367201547
   1  26
     0.014329073787800    -0.000022176368067     0.001101557114676
    -0.000001962510448     0.003250898557741     0.026907195753556
    -0.000760669049792    -0.008270411531562     0.056508722101694
   1  27
    -0.029278981703243     0.001942586678578    -0.000705896289211
    -0.001547484303274    -0.063757650348145    -0.007089393756876
    -0.000828617481540    -0.041465794741503     0.113775016955129
   1  28
    -0.044217044236202     0.001217733457219     0.000352698711288
    -0.001376871913938    -0.038625746985687     0.018797793691706
     0.001087529265357    -0.013816610336389    -0.109137053845026
   1  29
    -0.010759074999218    -0.000656288739157    -0.000055439024961
     0.000312722950663     0.009909920919702     0.005992880515204
     0.001017813648413    -0.028961815138689    -0.024735565524547
   1  30
    -0.061418240928296     0.161848767555731     0.029730153174775
     0.118154226741358    -0.100673755589062    -0.071519075110014
     0.123537277981986    -0.041930252407323    -0.065291164362226
   1  31
    -0.056062128368812    -0.156396222326067    -0.026792665683153
    -0.109637699343400    -0.097963099600979    -0.067622336320290
    -0.117365196674829    -0.036492933388740    -0.066373006180313
   1  32
    -0.062185798133045     0.005927290682855     0.098756814655534
     0.011974438976015     0.016846045690589    -0.021047699117601
     0.150305737893677    -0.003495781897924    -0.127247007666381
   1  33
     0.009308680789838    -0.002219513076804    -0.000657069570494
    -0.000067151495024     0.038909215962591    -0.008865559005815
    -0.000588746828464    -0.140735088190113    -0.045010241618036
   1  34
    -0.057362993377063    -0.006715539918047    -0.090833328658396
    -0.009964188697657     0.013703980388546    -0.020190346309041
    -0.142834743656612    -0.004211804234399    -0.119935693437832
   2   1
    -0.045149709330000    -0.259851619170000     0.138411521030000
    -2.443887538580000    -1.647814553320000     1.263986953580000
    -1.025834046680000    -0.752199444680000     0.452255828170000
   2   2
    39.951376996069996    -6.803756464949999     6.314567412330000
    -6.803756464949999    47.355539809459998     3.714018238770000
     6.314567412330000     3.714018238770000    48.386716348939991
   2   3
    -2.349054688080000    -1.121600872540000     1.175452791590000
     1.110730196880000     0.785105500940000    -0.498814307690000
    -1.099935670960000    -0.466423163000000     0.423352437660000
   2   4
    -0.001496450490000    -0.008228856210000     0.004915621860000
     0.003912823470000     0.003150845630000    -0.001252627190000
    -0.004209735390000     0.003441631940000    -0.014005666770000
   2   5
     0.004575110010000     0.006416876750000     0.001788798230000
     0.005803114650000     0.005001620620000     0.002054121220000
    -0.001802610880000    -0.001190650430000    -0.020478634890000
   2   6
     0.001839364540000     0.005300694520000     0.000265563210000
    -0.003407160370000     0.006540590050000     0.006428287200000
     0.005020958330000    -0.005140347670000    -0.013874386540000
   2   7
    -3.921035787266858    -0.010615890495312    -3.571304934813656
    -0.003453697680876    -3.701521612852990    -1.608483259097836
    -3.544076680148760    -1.576580240559134   -29.202152994454682
   2   8
    -3.556671894925588    -0.244794330654820    -0.149558584180621
    -0.129866712767680   -26.754940428424696    -7.592408401423067
    -0.301613296181174    -7.670497928999560    -6.199902373209291
   2   9
   -21.246260015294471    10.222586956438175    -6.109981572674458
    10.165943666685441    -9.421007131970144     3.438629593052098
    -6.280043450025325     3.357504711109657    -5.814206160240531
   2  10
     0.141817551995302    -0.056278144763414     0.078204311195004
    -0.015149462200697     0.080022758194779    -0.014526227354176
     0.059326356835420    -0.041900630122713     0.000732092136902
   2  11
    -0.310242168565468     0.385862080842610    -0.238428553164470
     0.226017713040564    -0.211539485478549     0.205398631202008
    -0.226502077730270     0.198802420052396    -0.193265600705512
   2  12
     0.290187959371268    -0.145329819819681     0.126059445498626
    -0.013945932393928    -0.007046577430574    -0.040333514886658
    -0.155287887892605    -0.067139960547660     0.170813169404633
   2  13
     0.069740752174325     0.039261611946767     0.023364323381269
    -0.000474140907260     0.167055149575767     0.080447720975629
    -0.011381218589385     0.076125209728194     0.004335680865501
   2  14
     0.025356262770616     0.030888056868502     0.052477358332724
     0.190792970256761    -0.528529142516938    -0.322289908456543
     0.061367612978735    -0.305292644870541    -0.209331910921818
   2  15
    -0.011701170994606     0.158094922669559     0.039261715917436
     0.042280088407457     0.278298393524541     0.127926550771465
    -0.131340011803461    -0.099996702032557     0.172223878097712
   2  16
    -0.001695449698418    -0.007154221729817    -0.003087720926204
    -0.005558445246024     0.013306928662617    -0.001136087499516
    -0.003072367924091    -0.002157668635639    -0.005072867565181
   2  17
     0.004176397800683    -0.003524467049535    -0.000382230835916
     0.000213833009122     0.001883394010973     0.001742271156331
     0.014768652297256    -0.003261386600225    -0.012725316740562
   2  18
    -0.003723432252998     0.002712941321562     0.000061238724006
     0.002942369931025     0.010061137662733    -0.000344905365766
     0.003724090733901     0.016738030051443    -0.013596833544514
   2  19
    -0.003605737455757     0.002202999847297     0.001660584867433
    -0.003121546050500     0.003350038923942    -0.000248385928100
    -0.004557311674793    -0.000636993631711     0.002500737186254
   2  20
     0.002791265892164     0.002603425550278     0.001489067920570
     0.001449628380152     0.011114637794221     0.000135751036747
    -0.007213762266231     0.001534918985573    -0.001676596350450
   2  21
    -0.001906544813257    -0.001559213465216    -0.004057524669194
    -0.001728547028031     0.009211108130363     0.001230319582466
    -0.000971848499479     0.001093806094147    -0.006062321764601
   2  22
    -0.002122006696192    -0.005157880915485    -0.000333572562852
     0.004338973270017     0.003669436818928     0.001976447759675
    -0.001524903144465    -0.001858545021096     0.001985562521652
   2  23
     0.005237106565218     0.001619100570526    -0.000011610058032
     0.001110372087398     0.008426649433205     0.002073279109349
    -0.004107707845403    -0.005271971396202    -0.001298732282629
   2  24
     0.000224888556919    -0.003489359620323    -0.001646306228898
    -0.001700821516313     0.007976629721139    -0.002953633420160
    -0.000157550220335    -0.001071383086545    -0.006071297899019
   2  25
    -8.731730620119041    -2.279773419983720     2.001892341798512
    -2.403683189677705    -6.175607272601940     1.171841482618649
     6.017928585622682     3.511017935113334    -7.425996469657589
   2  26
     0.006320068647962    -0.005750351864798    -0.022739216063287
    -0.004769685393742     0.018626186665573    -0.013187873962068
     0.006872515339181     0.004729257678506     0.056480854453327
   2  27
    -0.056258687083536    -0.014938062532959     0.005554381119489
    -0.013376111097256    -0.029423154160898     0.004689346373558
     0.035367150122700     0.021031219618771     0.113779007888213
   2  28
    -0.040775363317992     0.002230931593888    -0.016293982048207
     0.009466992141596    -0.045249199305020    -0.009094837631525
     0.012380872159464     0.005607759849485    -0.109145534577830
   2  29
    -0.217776983350164     0.031650607849322     0.076827947373580
     0.095524172918342     0.053002440772873     0.000996340786632
     0.098654525750323    -0.086092120777181    -0.065273595657133
   2  30
     0.003864334289218     0.008121036325522    -0.005297550209173
     0.011353287647045    -0.003896348374055    -0.001543703554210
     0.025763920396016     0.013760981076183    -0.024736346355884
   2  31
     0.028510104209953    -0.059405648155926     0.044676826636930
    -0.113929538789891    -0.209917525522700     0.078658606444316
    -0.026687253452593     0.119599155131376    -0.066389794054069
   2  32
     0.034732158722710     0.013546252458374     0.006876000757901
     0.015249636021099     0.023036476534177     0.003361088492208
     0.122186439768135     0.071634247732293    -0.044995015406956
   2  33
    -0.011903773739972     0.041378595067390     0.068404338904782
     0.053888293925251    -0.050112193577169    -0.106714266815853
     0.079414060763333    -0.126604773891299    -0.127225534804601
   2  34
     0.003551611338555     0.025372723895935    -0.028572961132621
     0.039662327787596    -0.057661270947983     0.112926170521222
    -0.067142515463405     0.127165801207283    -0.119932960528151
   3   1
    -0.018968131530000     0.242482992510000    -0.126393794870000
     2.477293492660000    -1.647027352380000     1.192928916700000
     1.036700278270000    -0.758283977060000     0.423203261040000
   3   2
    -2.349054688080000     1.110730196880000    -1.099935670960000
    -1.121600872540000     0.785105500940000    -0.466423163000000
     1.175452791590000    -0.498814307690000     0.423352437660000
   3   3
    39.609140606689998     6.922531562410000    -6.089194329540000
     6.922531562410000    47.386587283579999     3.532731051040000
    -6.089194329540000     3.532731051040000    48.715792645949996
   3   4
    -0.001114140360000     0.008261285910000    -0.005107917970000
    -0.003136432430000     0.002866545260000    -0.001444322750000
     0.004835268270000     0.003208378320000    -0.013843758490000
   3   5
    -0.006006340770000    -0.005423567050000    -0.000595625490000
     0.003870184420000     0.007639116110000     0.006226742620000
    -0.000252591330000    -0.005800352120000    -0.013842917720000
   3   6
     0.012242812300000    -0.006556684790000    -0.002200174980000
    -0.005128336670000     0.004288647660000     0.001989862370000
     0.006245119450000    -0.000129838910000    -0.020280813720000
   3   7
     0.291132740839933     0.143746242561044    -0.130162994517271
     0.012711453984704    -0.006325367557021    -0.041683158140178
     0.152345587275359    -0.070499980655821     0.171163931784750
   3   8
     0.136529499802303     0.043499144500788    -0.082252617131552
     0.014759849447286     0.084860305479257    -0.015113765604360
    -0.062768825684051    -0.048592321003302     0.004083863905326
   3   9
    -0.300256964147951    -0.381147634830158     0.239635514003314
    -0.203397334452456    -0.211664146310609     0.209188466055570
     0.219742424689083     0.209424999327410    -0.204990650297084
   3  10
    -3.558043857216041    -0.002338681570265     0.068807961989478
    -0.108907508214129   -26.792491757524274    -7.542721546530935
     0.217763828202249    -7.632719805214131    -6.170687620286723
   3  11
   -20.916242521525788   -10.113373809114250     6.546924824393475
   -10.056409284651380    -9.403913037034471     3.715614213203903
     6.719617125011655     3.636675869086178    -6.172720940002309
   3  12
    -3.740384150715473    -0.024125284707247     2.874862815388409
    -0.031621465967210    -3.705502060599610    -1.675364575278061
     2.841540666532444    -1.645707704414267   -29.375657999135086
   3  13
     0.010889506639075    -0.038425930366711    -0.058247626488270
    -0.208656586770158    -0.528936915480524    -0.311978028197214
    -0.078284611208316    -0.303985594934396    -0.205000978050199
   3  14
     0.057143215385891    -0.031376476414296    -0.024633146768133
     0.001550514585914     0.165352664528751     0.079838938052091
     0.004804657896203     0.079492161214284     0.004163436123956
   3  15
    -0.007766470342320    -0.161488941186462    -0.034421465395566
    -0.038477569132285     0.278610374845143     0.130771638813251
     0.137707764736520    -0.097752009947014     0.171114615030782
   3  16
    -0.002152539415971     0.001474338742470     0.003597558429800
     0.001678710420718     0.008850572507366     0.000789795858164
     0.000915877622700     0.001185542881042    -0.005940676081940
   3  17
    -0.003949603114834    -0.002196934891609    -0.001668590608941
     0.001723383151473     0.003186701003036    -0.000063768676950
     0.003239240847741    -0.000537147132638     0.002931245069448
   3  18
     0.002927190213360    -0.002860302416341    -0.001368254003261
    -0.001671224532555     0.010807751036397     0.000421358464327
     0.007108959831938     0.001058594694266    -0.001357683651919
   3  19
     0.004686235304280     0.003610762704756     0.000832181234202
    -0.001933369245844     0.001358792672387     0.001895073382784
    -0.016951655119227    -0.003961386457314    -0.014313676649971
   3  20
    -0.004430917998251    -0.002523610733421    -0.000530111784040
    -0.003131423264049     0.010506270753359    -0.000715838055657
    -0.003408713038114     0.018676979056521    -0.014297873108292
   3  21
    -0.001385443820526     0.008056097969100     0.003313441248475
     0.006442646471586     0.014128990085043    -0.001386032987650
     0.002814139439331    -0.002677868549240    -0.005391918891271
   3  22
     0.005445775697782    -0.001868422234646    -0.000018922661747
    -0.001651331477897     0.008215277063248     0.001905574420347
     0.004382017126959    -0.005408554198301    -0.001357995563926
   3  23
    -0.002366407081983     0.004871892262118     0.000371244601898
    -0.004584170764269     0.003485651333130     0.002112268110202
     0.001660099670978    -0.001597301386938     0.002942404587915
   3  24
    -0.000115234158076     0.003554757171086     0.001649217407629
     0.001115362679507     0.007701592644901    -0.003004925616838
    -0.000161951645320    -0.001211535548278    -0.005945216134484
   3  25
    -8.943820105530673     2.367939986881363    -1.966121467604848
     2.432051670711125    -6.166753406714074     1.107188930909314
    -5.974187760247104     3.448862874200607    -7.207943896248554
   3  26
     0.005805105906308     0.006567344964458     0.024440320119943
     0.006058662256238     0.019192370929931    -0.013081702146810
    -0.009836102367280     0.005534279464431     0.055311198226092
   3  27
    -0.056498641935204     0.013762233873121    -0.004547169382445
     0.016942009807702    -0.028762155868881     0.003095467473184
    -0.034788464825538     0.019815980494730     0.116594112312254
   3  28
    -0.040285476281946    -0.003330433658497     0.015386543638260
    -0.008241276818210    -0.044898994926910    -0.007998827633364
    -0.009972842909978     0.005534426454069    -0.109805535136576
   3  29
    -0.211393687166217    -0.030982997055771    -0.074541673217422
    -0.098234438490756     0.050939874794904     0.000851106157860
    -0.093094616211755    -0.086799944384612    -0.069031736884452
   3  30
     0.032408795078021     0.057165833464348    -0.045456486727410
     0.112219127745128    -0.218427025438621     0.081557052369063
     0.028534309981416     0.123144129403562    -0.068988400745222
   3  31
     0.003255676261647    -0.007509645388271     0.004663124747466
    -0.011138168613567    -0.003492658572574    -0.001138842505723
    -0.026560758775920     0.015477248355977    -0.025342661889442
   3  32
     0.006289596423449    -0.027202211719665     0.030229494815097
    -0.044687367859986    -0.066754442288675     0.122539765948348
     0.069316349906966     0.135933756295912    -0.124632003517141
   3  33
    -0.014949406371836    -0.043942845179693    -0.070798758201183
    -0.057058859571112    -0.050605678982460    -0.106114978764332
    -0.082854794051965    -0.126047260316334    -0.124615215643385
   3  34
     0.031903206786998    -0.012407019536982    -0.006998981693555
    -0.016110502570678     0.022850248260187     0.002684888553945
    -0.129534843485215     0.075317429151214    -0.048855445539486
   4   1
    -0.008522765380000    -0.000024502440000     0.000176801920000
    -0.000245264620000     0.008199909700000     0.002217350710000
    -0.000321414360000    -0.002322927400000    -0.020483559400000
   4   2
    -0.001496450490000     0.003912823470000    -0.004209735390000
    -0.008228856210000     0.003150845630000     0.003441631940000
     0.004915621860000    -0.001252627190000    -0.014005666770000
   4   3
    -0.001114140360000    -0.003136432430000     0.004835268270000
     0.008261285910000     0.002866545260000     0.003208378320000
    -0.005107917970000    -0.001444322750000    -0.013843758490000
   4   4
    51.482909646850004    -0.118535357900000     0.049428387860000
    -0.118535357900000    35.988308270099999     7.329042416089999
     0.049428387860000     7.329042416089999    48.369747568469997
   4   5
    -0.044272185670000    -2.390549690330000     1.028967116030000
    -0.261066772040000    -1.578200358750000     0.754892190770000
    -0.138487910990000    -1.268361479890000     0.455289566550000
   4   6
    -0.022925035370000     2.434522081440000    -1.041275268170000
     0.281127304020000    -1.591199623830000     0.760491118420000
     0.152222849820000    -1.188595227790000     0.421519799280000
   4   7
     0.003660183429392    -0.000425378663527    -0.001801083898062
    -0.001546043847150    -0.002685943604527    -0.002785859417379
    -0.000691162350229    -0.001406653836990    -0.006067485641158
   4   8
     0.002866402028919    -0.002051202670644     0.001482760366655
    -0.000279403844334     0.006153192129255     0.001047400518910
    -0.004468070183952    -0.004665649111829    -0.001270001721112
   4   9
    -0.000381399070565     0.001323338674279     0.001996548755670
    -0.003952063753999    -0.003300306287299     0.000878725436998
    -0.000290840617917    -0.003043914617691     0.002088736082131
   4  10
     0.002869555805877     0.001445053670719    -0.001828081615097
     0.000468422520468     0.004337379053094     0.001019432408965
     0.004915629256853    -0.006451865204232    -0.001697563768686
   4  11
    -0.001676041840216    -0.001574427839771    -0.002393162200790
     0.001583230689741    -0.003344563135378     0.000822026765536
     0.000794682479604    -0.003412975835541     0.002449652930914
   4  12
     0.003638072333798     0.000061793234240     0.002467882454869
     0.001545835905812    -0.002645013817854    -0.002956371314442
     0.000848435315447    -0.001098138205353    -0.006012519814178
   4  13
     0.001523828780886     0.002076779455203    -0.000783453647359
     0.004171927061919     0.001183671409002    -0.000238543371440
     0.013196130586416     0.010631728693881    -0.013582520249090
   4  14
     0.001286186488577    -0.004335854149949     0.001009312597188
    -0.005967327230079     0.000636993631711     0.000286404536042
    -0.008986046288996     0.009761528851736    -0.012666885224618
   4  15
     0.011895353547298     0.000188152253893    -0.000004436081875
     0.000158070073680    -0.005284933072930    -0.003384730470478
     0.000318080933180    -0.003012550132560    -0.004970733711391
   4  16
     0.122507738133828     0.105413885796380     0.088684173398452
     0.237524944080706     0.129467811967843     0.097697286718262
    -0.022129533060038    -0.163515537465457     0.172329200385349
   4  17
    -0.484428215784321    -0.110841917166662    -0.303912226299014
    -0.265462486649115    -0.021416328927994    -0.115364710579367
    -0.295486339317381    -0.099952583812036    -0.210331588903684
   4  18
     0.127504672453793     0.036510409419035     0.058723846808908
     0.074257619258900     0.109110840185688     0.061021529278721
     0.071712140028112     0.030565643824116     0.004531076409330
   4  19
    -0.506608555844581     0.114898644727395     0.292917466686081
     0.282411611815398    -0.021648876657525    -0.105093448194704
     0.285292535081079    -0.095820304231873    -0.191897623957368
   4  20
     0.129390457790152    -0.038479440604326    -0.054857350915448
    -0.074551093800430     0.107621148441104     0.058585427191659
    -0.067078479225427     0.029100073274727     0.000436330240655
   4  21
     0.124516486114654    -0.100007237727009    -0.090662596600837
    -0.241104446271000     0.130119118894978     0.091513977751903
     0.021746401144991    -0.168774720469379     0.170705871674286
   4  22
   -21.228302963806588    10.170472074514269     5.974265192817050
    10.254259714602064    -9.497498179825453    -3.551372613900344
     6.000610181992404    -3.739698984007153    -5.781111811120216
   4  23
   -20.750519929356948   -10.065800192725229    -6.499546256979388
   -10.155436737451179    -9.545562433801205    -3.935131957277405
    -6.523347222513319    -4.120026775455823    -6.221397685188790
   4  24
    -3.816392358784219     0.073358862139686     0.464858440593605
     0.072982141749224    -3.899257259185164    -3.915263509011712
     0.470513647875523    -3.880594732051626   -29.191109645882467
   4  25
     0.016060596756406    -0.000214894894098    -0.001298985665783
    -0.000015700083587     0.003323315193286    -0.026720757260960
     0.000697279962309     0.008359705756964     0.056506955842290
   4  26
    -4.864352776500239    -0.107132464121831     0.041229989507922
    -0.040642021377588   -10.088354825268476     2.333016328448265
     0.035866055950410     6.970469730689218    -7.435313684262316
   4  27
    -0.042409650415840     0.001346939915809    -0.000261904983630
    -0.001293561185812    -0.038756948910820    -0.018906047751606
    -0.001560454835797     0.013684410677986    -0.108983402921297
   4  28
    -0.028531180616651     0.002006441607920     0.000533288433333
    -0.001946577611662    -0.063649895154880     0.007207126282850
     0.000591156963050     0.041103617564141     0.113599415899438
   4  29
     0.012221962509998    -0.002396371374744     0.000621151328970
    -0.000083158537442     0.039089197585881     0.008792941691429
     0.000598507220183     0.140716348238013    -0.045011803280711
   4  30
    -0.058054809942076     0.005255385316949    -0.097056164002490
     0.011873321317810     0.016776161285884     0.021066048654032
    -0.149930938851684     0.003375143456283    -0.127043601102966
   4  31
    -0.053844176954683    -0.005837104663376     0.089286892194505
    -0.009795919544429     0.013693048749821     0.020006850944732
     0.142313148323172     0.003999808526271    -0.119270034722626
   4  32
    -0.056639943558551     0.159966573616721    -0.028223148693427
     0.116997034699204    -0.099687565609817     0.070715990079409
    -0.123071902504844     0.041366882597327    -0.064733260371593
   4  33
    -0.008384957317592    -0.000623884238651    -0.000020692030443
     0.000265092239076     0.010004401511538    -0.006046757877491
    -0.001280563393477     0.028909499439077    -0.024729318873847
   4  34
    -0.052300473400473    -0.156585183509739     0.025995827303249
    -0.110673862528243    -0.099444336648190     0.068140808328381
     0.117497938002201     0.036901308178246    -0.066611159738246
   5   1
    -0.002037425930000    -0.008249755350000    -0.004976157300000
     0.003082983480000    -0.004107521780000     0.002015686020000
     0.004461245730000    -0.003481628570000    -0.014035213830000
   5   2
     0.004575110010000     0.005803114650000    -0.001802610880000
     0.006416876750000     0.005001620620000    -0.001190650430000
     0.001788798230000     0.002054121220000    -0.020478634890000
   5   3
    -0.006006340770000     0.003870184420000    -0.000252591330000
    -0.005423567050000     0.007639116110000    -0.005800352120000
    -0.000595625490000     0.006226742620000    -0.013842917720000
   5   4
    -0.044272185670000    -0.261066772040000    -0.138487910990000
    -2.390549690330000    -1.578200358750000    -1.268361479890000
     1.028967116030000     0.754892190770000     0.455289566550000
   5   5
    39.982014294540001    -6.775109869620000    -6.323240315210000
    -6.775109869620000    47.532869612909998    -3.708767630120000
    -6.323240315210000    -3.708767630120000    48.368567127390001
   5   6
    -2.447775859610000    -1.107480500720000    -1.180164226450000
     1.098002020070000     0.755464274700000     0.520818339580000
     1.103067899540000     0.486476248160000     0.421612524200000
   5   7
    -0.001699920437182    -0.007074996080084     0.003079091360682
    -0.006751681956568     0.006472590024241     0.001795261540601